<?xml version="1.0" encoding="UTF-8"?>

<!-- generated on 2022-05-04 22:26:14 by Eclipse SUMO GUI Version v1_11_0+0823-0886ff870a4
<configuration xmlns:xsi="http://www.w3.org/2001/XMLSchema-instance" xsi:noNamespaceSchemaLocation="http://sumo.dlr.de/xsd/sumoConfiguration.xsd">

    <input>
        <net-file value="corridor.net.xml"/>
        <route-files value="corridor.rou.xml"/>
    </input>

    <output>
        <tripinfo-output value="tripinfo.xml"/>
    </output>

    <time>
        <begin value="0"/>
        <end value="-1"/>
    </time>

    <traci_server>
        <remote-port value="51471"/>
    </traci_server>

</configuration>
-->

<tripinfos xmlns:xsi="http://www.w3.org/2001/XMLSchema-instance" xsi:noNamespaceSchemaLocation="http://sumo.dlr.de/xsd/tripinfo_file.xsd">
    <tripinfo id="platoon_1.0" depart="1.00" departLane="w_t1_0" departPos="5.10" departSpeed="25.00" departDelay="0.00" arrival="66.00" arrivalLane="t4_e_0" arrivalPos="196.00" arrivalSpeed="24.54" duration="65.00" routeLength="994.90" waitingTime="2.00" waitingCount="1" stopTime="0.00" timeLoss="24.92" rerouteNo="0" devices="tripinfo_platoon_1.0" vType="type1" speedFactor="1.80" vaporized=""/>
    <tripinfo id="platoon_2.0" depart="2.00" departLane="w_t1_1" departPos="5.10" departSpeed="25.00" departDelay="0.50" arrival="66.00" arrivalLane="t4_e_1" arrivalPos="196.00" arrivalSpeed="24.81" duration="64.00" routeLength="994.90" waitingTime="4.00" waitingCount="2" stopTime="0.00" timeLoss="23.63" rerouteNo="0" devices="tripinfo_platoon_2.0" vType="type2" speedFactor="1.80" vaporized=""/>
    <tripinfo id="platoon_2.1" depart="3.00" departLane="w_t1_1" departPos="5.10" departSpeed="25.00" departDelay="0.50" arrival="67.00" arrivalLane="t4_e_1" arrivalPos="196.00" arrivalSpeed="24.69" duration="64.00" routeLength="994.90" waitingTime="2.00" waitingCount="2" stopTime="0.00" timeLoss="24.09" rerouteNo="0" devices="tripinfo_platoon_2.1" vType="type2" speedFactor="1.80" vaporized=""/>
    <tripinfo id="platoon_1.1" depart="2.00" departLane="w_t1_0" departPos="5.10" departSpeed="25.00" departDelay="0.00" arrival="68.00" arrivalLane="t4_e_0" arrivalPos="196.00" arrivalSpeed="24.71" duration="66.00" routeLength="994.90" waitingTime="1.00" waitingCount="1" stopTime="0.00" timeLoss="25.47" rerouteNo="0" devices="tripinfo_platoon_1.1" vType="type1" speedFactor="1.80" vaporized=""/>
    <tripinfo id="platoon_1.2" depart="3.00" departLane="w_t1_0" departPos="5.10" departSpeed="25.00" departDelay="0.00" arrival="69.00" arrivalLane="t4_e_0" arrivalPos="196.00" arrivalSpeed="23.81" duration="66.00" routeLength="994.90" waitingTime="1.00" waitingCount="1" stopTime="0.00" timeLoss="25.99" rerouteNo="0" devices="tripinfo_platoon_1.2" vType="type1" speedFactor="1.80" vaporized=""/>
    <tripinfo id="platoon_2.2" depart="4.00" departLane="w_t1_1" departPos="5.10" departSpeed="25.00" departDelay="0.50" arrival="69.00" arrivalLane="t4_e_1" arrivalPos="196.00" arrivalSpeed="24.77" duration="65.00" routeLength="994.90" waitingTime="0.00" waitingCount="0" stopTime="0.00" timeLoss="24.65" rerouteNo="0" devices="tripinfo_platoon_2.2" vType="type2" speedFactor="1.80" vaporized=""/>
    <tripinfo id="platoon_1.3" depart="4.00" departLane="w_t1_0" departPos="5.10" departSpeed="25.00" departDelay="0.00" arrival="71.00" arrivalLane="t4_e_0" arrivalPos="196.00" arrivalSpeed="23.86" duration="67.00" routeLength="994.90" waitingTime="0.00" waitingCount="0" stopTime="0.00" timeLoss="26.41" rerouteNo="0" devices="tripinfo_platoon_1.3" vType="type1" speedFactor="1.80" vaporized=""/>
    <tripinfo id="platoon_2.3" depart="5.00" departLane="w_t1_1" departPos="5.10" departSpeed="25.00" departDelay="0.50" arrival="86.00" arrivalLane="t4_e_0" arrivalPos="196.00" arrivalSpeed="24.12" duration="81.00" routeLength="994.90" waitingTime="13.00" waitingCount="2" stopTime="0.00" timeLoss="40.52" rerouteNo="0" devices="tripinfo_platoon_2.3" vType="type2" speedFactor="1.80" vaporized=""/>
    <tripinfo id="platoon_1.4" depart="5.00" departLane="w_t1_0" departPos="5.10" departSpeed="25.00" departDelay="0.00" arrival="87.00" arrivalLane="t4_e_0" arrivalPos="196.00" arrivalSpeed="24.97" duration="82.00" routeLength="994.90" waitingTime="9.00" waitingCount="2" stopTime="0.00" timeLoss="41.99" rerouteNo="0" devices="tripinfo_platoon_1.4" vType="type1" speedFactor="1.80" vaporized=""/>
    <tripinfo id="platoon_2.4" depart="6.00" departLane="w_t1_1" departPos="5.10" departSpeed="25.00" departDelay="0.50" arrival="88.00" arrivalLane="t4_e_1" arrivalPos="196.00" arrivalSpeed="24.09" duration="82.00" routeLength="994.90" waitingTime="11.00" waitingCount="2" stopTime="0.00" timeLoss="41.60" rerouteNo="0" devices="tripinfo_platoon_2.4" vType="type2" speedFactor="1.80" vaporized=""/>
    <tripinfo id="platoon_3.0" depart="11.00" departLane="w_t1_0" departPos="5.10" departSpeed="25.00" departDelay="0.00" arrival="89.00" arrivalLane="t4_e_0" arrivalPos="196.00" arrivalSpeed="24.40" duration="78.00" routeLength="994.90" waitingTime="7.00" waitingCount="1" stopTime="0.00" timeLoss="37.37" rerouteNo="0" devices="tripinfo_platoon_3.0" vType="type1" speedFactor="1.80" vaporized=""/>
    <tripinfo id="platoon_4.0" depart="12.00" departLane="w_t1_1" departPos="5.10" departSpeed="25.00" departDelay="0.50" arrival="90.00" arrivalLane="t4_e_1" arrivalPos="196.00" arrivalSpeed="24.68" duration="78.00" routeLength="994.90" waitingTime="9.00" waitingCount="2" stopTime="0.00" timeLoss="37.35" rerouteNo="0" devices="tripinfo_platoon_4.0" vType="type2" speedFactor="1.80" vaporized=""/>
    <tripinfo id="platoon_3.1" depart="12.00" departLane="w_t1_0" departPos="5.10" departSpeed="25.00" departDelay="0.00" arrival="90.00" arrivalLane="t4_e_0" arrivalPos="196.00" arrivalSpeed="24.03" duration="78.00" routeLength="994.90" waitingTime="7.00" waitingCount="1" stopTime="0.00" timeLoss="37.74" rerouteNo="0" devices="tripinfo_platoon_3.1" vType="type1" speedFactor="1.80" vaporized=""/>
    <tripinfo id="platoon_3.2" depart="13.00" departLane="w_t1_0" departPos="5.10" departSpeed="25.00" departDelay="0.00" arrival="106.00" arrivalLane="t4_e_1" arrivalPos="196.00" arrivalSpeed="23.94" duration="93.00" routeLength="994.90" waitingTime="17.00" waitingCount="2" stopTime="0.00" timeLoss="52.54" rerouteNo="0" devices="tripinfo_platoon_3.2" vType="type1" speedFactor="1.80" vaporized=""/>
    <tripinfo id="platoon_4.2" depart="14.00" departLane="w_t1_1" departPos="5.10" departSpeed="25.00" departDelay="0.50" arrival="106.00" arrivalLane="t4_e_0" arrivalPos="196.00" arrivalSpeed="24.87" duration="92.00" routeLength="994.90" waitingTime="14.00" waitingCount="3" stopTime="0.00" timeLoss="51.47" rerouteNo="0" devices="tripinfo_platoon_4.2" vType="type2" speedFactor="1.80" vaporized=""/>
    <tripinfo id="platoon_3.3" depart="14.00" departLane="w_t1_0" departPos="5.10" departSpeed="25.00" departDelay="0.00" arrival="107.00" arrivalLane="t4_e_0" arrivalPos="196.00" arrivalSpeed="24.13" duration="93.00" routeLength="994.90" waitingTime="17.00" waitingCount="3" stopTime="0.00" timeLoss="53.07" rerouteNo="0" devices="tripinfo_platoon_3.3" vType="type1" speedFactor="1.80" vaporized=""/>
    <tripinfo id="platoon_4.1" depart="13.00" departLane="w_t1_1" departPos="5.10" departSpeed="25.00" departDelay="0.50" arrival="108.00" arrivalLane="t4_e_0" arrivalPos="196.00" arrivalSpeed="23.89" duration="95.00" routeLength="994.90" waitingTime="22.00" waitingCount="3" stopTime="0.00" timeLoss="54.80" rerouteNo="0" devices="tripinfo_platoon_4.1" vType="type2" speedFactor="1.80" vaporized=""/>
    <tripinfo id="platoon_4.3" depart="15.00" departLane="w_t1_1" departPos="5.10" departSpeed="25.00" departDelay="0.50" arrival="110.00" arrivalLane="t4_e_1" arrivalPos="196.00" arrivalSpeed="24.05" duration="95.00" routeLength="994.90" waitingTime="18.00" waitingCount="3" stopTime="0.00" timeLoss="54.77" rerouteNo="0" devices="tripinfo_platoon_4.3" vType="type2" speedFactor="1.80" vaporized=""/>
    <tripinfo id="platoon_3.4" depart="15.00" departLane="w_t1_0" departPos="5.10" departSpeed="25.00" departDelay="0.00" arrival="110.00" arrivalLane="t4_e_0" arrivalPos="196.00" arrivalSpeed="23.75" duration="95.00" routeLength="994.90" waitingTime="13.00" waitingCount="2" stopTime="0.00" timeLoss="54.54" rerouteNo="0" devices="tripinfo_platoon_3.4" vType="type1" speedFactor="1.80" vaporized=""/>
    <tripinfo id="platoon_4.4" depart="16.00" departLane="w_t1_1" departPos="5.10" departSpeed="25.00" departDelay="0.50" arrival="126.00" arrivalLane="t4_e_1" arrivalPos="196.00" arrivalSpeed="24.73" duration="110.00" routeLength="994.90" waitingTime="24.00" waitingCount="4" stopTime="0.00" timeLoss="69.85" rerouteNo="0" devices="tripinfo_platoon_4.4" vType="type2" speedFactor="1.80" vaporized=""/>
    <tripinfo id="platoon_5.0" depart="21.00" departLane="w_t1_0" departPos="5.10" departSpeed="25.00" departDelay="0.00" arrival="126.00" arrivalLane="t4_e_0" arrivalPos="196.00" arrivalSpeed="24.58" duration="105.00" routeLength="994.90" waitingTime="21.00" waitingCount="3" stopTime="0.00" timeLoss="64.61" rerouteNo="0" devices="tripinfo_platoon_5.0" vType="type1" speedFactor="1.80" vaporized=""/>
    <tripinfo id="platoon_5.1" depart="22.00" departLane="w_t1_0" departPos="5.10" departSpeed="25.00" departDelay="0.00" arrival="128.00" arrivalLane="t4_e_0" arrivalPos="196.00" arrivalSpeed="24.74" duration="106.00" routeLength="994.90" waitingTime="23.00" waitingCount="4" stopTime="0.00" timeLoss="65.42" rerouteNo="0" devices="tripinfo_platoon_5.1" vType="type1" speedFactor="1.80" vaporized=""/>
    <tripinfo id="platoon_5.2" depart="23.00" departLane="w_t1_0" departPos="5.10" departSpeed="25.00" departDelay="0.00" arrival="128.00" arrivalLane="t4_e_1" arrivalPos="196.00" arrivalSpeed="24.45" duration="105.00" routeLength="994.90" waitingTime="20.00" waitingCount="3" stopTime="0.00" timeLoss="64.83" rerouteNo="0" devices="tripinfo_platoon_5.2" vType="type1" speedFactor="1.80" vaporized=""/>
    <tripinfo id="platoon_6.0" depart="22.00" departLane="w_t1_1" departPos="5.10" departSpeed="25.00" departDelay="0.50" arrival="130.00" arrivalLane="t4_e_1" arrivalPos="196.00" arrivalSpeed="23.93" duration="108.00" routeLength="994.90" waitingTime="22.00" waitingCount="3" stopTime="0.00" timeLoss="67.31" rerouteNo="0" devices="tripinfo_platoon_6.0" vType="type2" speedFactor="1.80" vaporized=""/>
    <tripinfo id="platoon_5.3" depart="24.00" departLane="w_t1_0" departPos="5.10" departSpeed="25.00" departDelay="0.00" arrival="130.00" arrivalLane="t4_e_0" arrivalPos="196.00" arrivalSpeed="24.95" duration="106.00" routeLength="994.90" waitingTime="18.00" waitingCount="4" stopTime="0.00" timeLoss="65.23" rerouteNo="0" devices="tripinfo_platoon_5.3" vType="type1" speedFactor="1.80" vaporized=""/>
    <tripinfo id="platoon_5.4" depart="25.00" departLane="w_t1_0" departPos="5.10" departSpeed="25.00" departDelay="0.00" arrival="146.00" arrivalLane="t4_e_0" arrivalPos="196.00" arrivalSpeed="24.60" duration="121.00" routeLength="994.90" waitingTime="26.00" waitingCount="4" stopTime="0.00" timeLoss="80.79" rerouteNo="0" devices="tripinfo_platoon_5.4" vType="type1" speedFactor="1.80" vaporized=""/>
    <tripinfo id="platoon_6.1" depart="23.00" departLane="w_t1_1" departPos="5.10" departSpeed="25.00" departDelay="0.50" arrival="147.00" arrivalLane="t4_e_0" arrivalPos="196.00" arrivalSpeed="23.95" duration="124.00" routeLength="994.90" waitingTime="30.00" waitingCount="4" stopTime="0.00" timeLoss="83.26" rerouteNo="0" devices="tripinfo_platoon_6.1" vType="type2" speedFactor="1.80" vaporized=""/>
    <tripinfo id="platoon_6.2" depart="24.00" departLane="w_t1_1" departPos="5.10" departSpeed="25.00" departDelay="0.50" arrival="148.00" arrivalLane="t4_e_1" arrivalPos="196.00" arrivalSpeed="24.38" duration="124.00" routeLength="994.90" waitingTime="27.00" waitingCount="4" stopTime="0.00" timeLoss="83.57" rerouteNo="0" devices="tripinfo_platoon_6.2" vType="type2" speedFactor="1.80" vaporized=""/>
    <tripinfo id="platoon_6.3" depart="25.00" departLane="w_t1_1" departPos="5.10" departSpeed="25.00" departDelay="0.50" arrival="148.00" arrivalLane="t4_e_0" arrivalPos="196.00" arrivalSpeed="24.50" duration="123.00" routeLength="994.90" waitingTime="26.00" waitingCount="4" stopTime="0.00" timeLoss="82.62" rerouteNo="0" devices="tripinfo_platoon_6.3" vType="type2" speedFactor="1.80" vaporized=""/>
    <tripinfo id="platoon_6.4" depart="26.00" departLane="w_t1_1" departPos="5.10" departSpeed="25.00" departDelay="0.50" arrival="150.00" arrivalLane="t4_e_1" arrivalPos="196.00" arrivalSpeed="24.62" duration="124.00" routeLength="994.90" waitingTime="27.00" waitingCount="4" stopTime="0.00" timeLoss="83.26" rerouteNo="0" devices="tripinfo_platoon_6.4" vType="type2" speedFactor="1.80" vaporized=""/>
    <tripinfo id="platoon_7.0" depart="55.00" departLane="w_t1_0" departPos="5.10" departSpeed="25.00" departDelay="0.00" arrival="150.00" arrivalLane="t4_e_0" arrivalPos="196.00" arrivalSpeed="23.70" duration="95.00" routeLength="994.90" waitingTime="17.00" waitingCount="3" stopTime="0.00" timeLoss="54.73" rerouteNo="0" devices="tripinfo_platoon_7.0" vType="type1" speedFactor="1.80" vaporized=""/>
    <tripinfo id="platoon_7.1" depart="56.00" departLane="w_t1_0" departPos="5.10" departSpeed="25.00" departDelay="0.00" arrival="151.00" arrivalLane="t4_e_0" arrivalPos="196.00" arrivalSpeed="24.38" duration="95.00" routeLength="994.90" waitingTime="14.00" waitingCount="2" stopTime="0.00" timeLoss="55.10" rerouteNo="0" devices="tripinfo_platoon_7.1" vType="type1" speedFactor="1.80" vaporized=""/>
    <tripinfo id="platoon_8.0" depart="56.00" departLane="w_t1_1" departPos="5.10" departSpeed="25.00" departDelay="0.50" arrival="166.00" arrivalLane="t4_e_1" arrivalPos="196.00" arrivalSpeed="23.81" duration="110.00" routeLength="994.90" waitingTime="31.00" waitingCount="4" stopTime="0.00" timeLoss="69.41" rerouteNo="0" devices="tripinfo_platoon_8.0" vType="type2" speedFactor="1.80" vaporized=""/>
    <tripinfo id="platoon_8.1" depart="57.00" departLane="w_t1_1" departPos="5.10" departSpeed="25.00" departDelay="0.50" arrival="166.00" arrivalLane="t4_e_0" arrivalPos="196.00" arrivalSpeed="24.08" duration="109.00" routeLength="994.90" waitingTime="24.00" waitingCount="4" stopTime="0.00" timeLoss="68.74" rerouteNo="0" devices="tripinfo_platoon_8.1" vType="type2" speedFactor="1.80" vaporized=""/>
    <tripinfo id="platoon_7.2" depart="57.00" departLane="w_t1_0" departPos="5.10" departSpeed="25.00" departDelay="0.00" arrival="168.00" arrivalLane="t4_e_0" arrivalPos="196.00" arrivalSpeed="24.32" duration="111.00" routeLength="994.90" waitingTime="21.00" waitingCount="3" stopTime="0.00" timeLoss="70.42" rerouteNo="0" devices="tripinfo_platoon_7.2" vType="type1" speedFactor="1.80" vaporized=""/>
    <tripinfo id="platoon_8.2" depart="58.00" departLane="w_t1_1" departPos="5.10" departSpeed="25.00" departDelay="0.50" arrival="168.00" arrivalLane="t4_e_1" arrivalPos="196.00" arrivalSpeed="24.22" duration="110.00" routeLength="994.90" waitingTime="27.00" waitingCount="3" stopTime="0.00" timeLoss="69.43" rerouteNo="0" devices="tripinfo_platoon_8.2" vType="type2" speedFactor="1.80" vaporized=""/>
    <tripinfo id="platoon_7.3" depart="58.00" departLane="w_t1_0" departPos="5.10" departSpeed="25.00" departDelay="0.00" arrival="169.00" arrivalLane="t4_e_1" arrivalPos="196.00" arrivalSpeed="24.25" duration="111.00" routeLength="994.90" waitingTime="21.00" waitingCount="3" stopTime="0.00" timeLoss="71.13" rerouteNo="0" devices="tripinfo_platoon_7.3" vType="type1" speedFactor="1.80" vaporized=""/>
    <tripinfo id="platoon_8.3" depart="59.00" departLane="w_t1_1" departPos="5.10" departSpeed="25.00" departDelay="0.50" arrival="170.00" arrivalLane="t4_e_0" arrivalPos="196.00" arrivalSpeed="23.93" duration="111.00" routeLength="994.90" waitingTime="26.00" waitingCount="4" stopTime="0.00" timeLoss="70.31" rerouteNo="0" devices="tripinfo_platoon_8.3" vType="type2" speedFactor="1.80" vaporized=""/>
    <tripinfo id="platoon_8.4" depart="60.00" departLane="w_t1_1" departPos="5.10" departSpeed="25.00" departDelay="0.50" arrival="171.00" arrivalLane="t4_e_1" arrivalPos="196.00" arrivalSpeed="23.78" duration="111.00" routeLength="994.90" waitingTime="24.00" waitingCount="4" stopTime="0.00" timeLoss="70.63" rerouteNo="0" devices="tripinfo_platoon_8.4" vType="type2" speedFactor="1.80" vaporized=""/>
    <tripinfo id="platoon_10.0" depart="73.00" departLane="w_t1_1" departPos="5.10" departSpeed="25.00" departDelay="0.50" arrival="182.00" arrivalLane="t4_e_0" arrivalPos="196.00" arrivalSpeed="24.54" duration="109.00" routeLength="994.90" waitingTime="25.00" waitingCount="4" stopTime="0.00" timeLoss="68.69" rerouteNo="0" devices="tripinfo_platoon_10.0" vType="type2" speedFactor="1.80" vaporized=""/>
    <tripinfo id="platoon_12.4" depart="114.00" departLane="w_t1_1" departPos="5.10" departSpeed="25.00" departDelay="4.50" arrival="183.00" arrivalLane="t4_e_1" arrivalPos="196.00" arrivalSpeed="24.41" duration="69.00" routeLength="980.50" waitingTime="8.00" waitingCount="1" stopTime="0.00" timeLoss="36.35" rerouteNo="0" devices="tripinfo_platoon_12.4" vType="type2" speedFactor="1.80" vaporized=""/>
    <tripinfo id="platoon_10.1" depart="74.00" departLane="w_t1_1" departPos="5.10" departSpeed="25.00" departDelay="0.50" arrival="185.00" arrivalLane="t4_e_1" arrivalPos="196.00" arrivalSpeed="24.41" duration="111.00" routeLength="994.90" waitingTime="30.00" waitingCount="4" stopTime="0.00" timeLoss="70.50" rerouteNo="0" devices="tripinfo_platoon_10.1" vType="type2" speedFactor="1.80" vaporized=""/>
    <tripinfo id="platoon_11.4" depart="113.00" departLane="w_t1_1" departPos="5.10" departSpeed="25.00" departDelay="4.00" arrival="186.00" arrivalLane="t4_e_0" arrivalPos="196.00" arrivalSpeed="24.48" duration="73.00" routeLength="980.50" waitingTime="13.00" waitingCount="2" stopTime="0.00" timeLoss="41.62" rerouteNo="0" devices="tripinfo_platoon_11.4" vType="type2" speedFactor="1.80" vaporized=""/>
    <tripinfo id="platoon_7.4" depart="59.00" departLane="w_t1_0" departPos="5.10" departSpeed="25.00" departDelay="0.00" arrival="188.00" arrivalLane="t4_e_0" arrivalPos="196.00" arrivalSpeed="24.96" duration="129.00" routeLength="994.90" waitingTime="30.00" waitingCount="4" stopTime="0.00" timeLoss="88.29" rerouteNo="0" devices="tripinfo_platoon_7.4" vType="type1" speedFactor="1.80" vaporized=""/>
    <tripinfo id="platoon_9.1" depart="73.00" departLane="w_t1_0" departPos="5.10" departSpeed="25.00" departDelay="0.00" arrival="188.00" arrivalLane="t4_e_1" arrivalPos="196.00" arrivalSpeed="24.13" duration="115.00" routeLength="994.90" waitingTime="20.00" waitingCount="3" stopTime="0.00" timeLoss="74.40" rerouteNo="0" devices="tripinfo_platoon_9.1" vType="type1" speedFactor="1.80" vaporized=""/>
    <tripinfo id="platoon_9.0" depart="72.00" departLane="w_t1_0" departPos="5.10" departSpeed="25.00" departDelay="0.00" arrival="189.00" arrivalLane="t4_e_0" arrivalPos="196.00" arrivalSpeed="23.77" duration="117.00" routeLength="994.90" waitingTime="21.00" waitingCount="3" stopTime="0.00" timeLoss="76.97" rerouteNo="0" devices="tripinfo_platoon_9.0" vType="type1" speedFactor="1.80" vaporized=""/>
    <tripinfo id="platoon_9.2" depart="74.00" departLane="w_t1_0" departPos="5.10" departSpeed="25.00" departDelay="0.00" arrival="201.00" arrivalLane="t4_e_0" arrivalPos="196.00" arrivalSpeed="24.02" duration="127.00" routeLength="994.90" waitingTime="39.00" waitingCount="5" stopTime="0.00" timeLoss="86.96" rerouteNo="0" devices="tripinfo_platoon_9.2" vType="type1" speedFactor="1.80" vaporized=""/>
    <tripinfo id="platoon_10.2" depart="75.00" departLane="w_t1_1" departPos="5.10" departSpeed="25.00" departDelay="0.50" arrival="202.00" arrivalLane="t4_e_1" arrivalPos="196.00" arrivalSpeed="24.83" duration="127.00" routeLength="994.90" waitingTime="34.00" waitingCount="5" stopTime="0.00" timeLoss="86.35" rerouteNo="0" devices="tripinfo_platoon_10.2" vType="type2" speedFactor="1.80" vaporized=""/>
    <tripinfo id="platoon_9.3" depart="75.00" departLane="w_t1_0" departPos="5.10" departSpeed="25.00" departDelay="0.00" arrival="203.00" arrivalLane="t4_e_0" arrivalPos="196.00" arrivalSpeed="24.32" duration="128.00" routeLength="994.90" waitingTime="31.00" waitingCount="5" stopTime="0.00" timeLoss="87.39" rerouteNo="0" devices="tripinfo_platoon_9.3" vType="type1" speedFactor="1.80" vaporized=""/>
    <tripinfo id="platoon_10.3" depart="76.00" departLane="w_t1_1" departPos="5.10" departSpeed="25.00" departDelay="0.50" arrival="203.00" arrivalLane="t4_e_1" arrivalPos="196.00" arrivalSpeed="24.86" duration="127.00" routeLength="994.90" waitingTime="30.00" waitingCount="5" stopTime="0.00" timeLoss="86.91" rerouteNo="0" devices="tripinfo_platoon_10.3" vType="type2" speedFactor="1.80" vaporized=""/>
    <tripinfo id="platoon_9.4" depart="76.00" departLane="w_t1_0" departPos="5.10" departSpeed="25.00" departDelay="0.00" arrival="204.00" arrivalLane="t4_e_0" arrivalPos="196.00" arrivalSpeed="24.82" duration="128.00" routeLength="994.90" waitingTime="27.00" waitingCount="5" stopTime="0.00" timeLoss="87.86" rerouteNo="0" devices="tripinfo_platoon_9.4" vType="type1" speedFactor="1.80" vaporized=""/>
    <tripinfo id="platoon_11.0" depart="105.00" departLane="w_t1_1" departPos="5.10" departSpeed="25.00" departDelay="0.00" arrival="205.00" arrivalLane="t4_e_1" arrivalPos="196.00" arrivalSpeed="24.06" duration="100.00" routeLength="994.90" waitingTime="18.00" waitingCount="3" stopTime="0.00" timeLoss="59.40" rerouteNo="0" devices="tripinfo_platoon_11.0" vType="type2" speedFactor="1.80" vaporized=""/>
    <tripinfo id="platoon_10.4" depart="77.00" departLane="w_t1_1" departPos="5.10" departSpeed="25.00" departDelay="0.50" arrival="206.00" arrivalLane="t4_e_0" arrivalPos="196.00" arrivalSpeed="23.76" duration="129.00" routeLength="994.90" waitingTime="37.00" waitingCount="5" stopTime="0.00" timeLoss="88.33" rerouteNo="0" devices="tripinfo_platoon_10.4" vType="type2" speedFactor="1.80" vaporized=""/>
    <tripinfo id="platoon_12.0" depart="106.00" departLane="w_t1_1" departPos="5.10" departSpeed="25.00" departDelay="0.50" arrival="221.00" arrivalLane="t4_e_1" arrivalPos="196.00" arrivalSpeed="24.46" duration="115.00" routeLength="994.90" waitingTime="33.00" waitingCount="4" stopTime="0.00" timeLoss="74.93" rerouteNo="0" devices="tripinfo_platoon_12.0" vType="type2" speedFactor="1.80" vaporized=""/>
    <tripinfo id="platoon_11.1" depart="107.00" departLane="w_t1_1" departPos="5.10" departSpeed="25.00" departDelay="1.00" arrival="221.00" arrivalLane="t4_e_0" arrivalPos="196.00" arrivalSpeed="24.24" duration="114.00" routeLength="994.90" waitingTime="34.00" waitingCount="4" stopTime="0.00" timeLoss="73.61" rerouteNo="0" devices="tripinfo_platoon_11.1" vType="type2" speedFactor="1.80" vaporized=""/>
    <tripinfo id="platoon_11.2" depart="109.00" departLane="w_t1_1" departPos="5.10" departSpeed="25.00" departDelay="2.00" arrival="222.00" arrivalLane="t4_e_0" arrivalPos="196.00" arrivalSpeed="24.85" duration="113.00" routeLength="994.90" waitingTime="29.00" waitingCount="4" stopTime="0.00" timeLoss="73.02" rerouteNo="0" devices="tripinfo_platoon_11.2" vType="type2" speedFactor="1.80" vaporized=""/>
    <tripinfo id="platoon_12.1" depart="108.00" departLane="w_t1_1" departPos="5.10" departSpeed="25.00" departDelay="1.50" arrival="223.00" arrivalLane="t4_e_1" arrivalPos="196.00" arrivalSpeed="24.51" duration="115.00" routeLength="994.90" waitingTime="27.00" waitingCount="4" stopTime="0.00" timeLoss="74.37" rerouteNo="0" devices="tripinfo_platoon_12.1" vType="type2" speedFactor="1.80" vaporized=""/>
    <tripinfo id="platoon_11.3" depart="111.00" departLane="w_t1_1" departPos="5.10" departSpeed="25.00" departDelay="3.00" arrival="224.00" arrivalLane="t4_e_0" arrivalPos="196.00" arrivalSpeed="24.02" duration="113.00" routeLength="994.90" waitingTime="27.00" waitingCount="4" stopTime="0.00" timeLoss="72.46" rerouteNo="0" devices="tripinfo_platoon_11.3" vType="type2" speedFactor="1.80" vaporized=""/>
    <tripinfo id="platoon_12.3" depart="112.00" departLane="w_t1_1" departPos="5.10" departSpeed="25.00" departDelay="3.50" arrival="224.00" arrivalLane="t4_e_1" arrivalPos="196.00" arrivalSpeed="24.98" duration="112.00" routeLength="994.90" waitingTime="23.00" waitingCount="4" stopTime="0.00" timeLoss="71.75" rerouteNo="0" devices="tripinfo_platoon_12.3" vType="type2" speedFactor="1.80" vaporized=""/>
    <tripinfo id="platoon_12.2" depart="110.00" departLane="w_t1_1" departPos="5.10" departSpeed="25.00" departDelay="2.50" arrival="225.00" arrivalLane="t4_e_0" arrivalPos="196.00" arrivalSpeed="24.04" duration="115.00" routeLength="994.90" waitingTime="30.00" waitingCount="4" stopTime="0.00" timeLoss="74.84" rerouteNo="0" devices="tripinfo_platoon_12.2" vType="type2" speedFactor="1.80" vaporized=""/>
</tripinfos>
