<?xml version="1.0" encoding="UTF-8"?>

<!-- generated on 2022-05-23 14:22:54 by Eclipse SUMO GUI Version v1_11_0+0823-0886ff870a4
<configuration xmlns:xsi="http://www.w3.org/2001/XMLSchema-instance" xsi:noNamespaceSchemaLocation="http://sumo.dlr.de/xsd/sumoConfiguration.xsd">

    <input>
        <net-file value="corridor.net.xml"/>
        <route-files value="corridor.rou.xml"/>
    </input>

    <output>
        <tripinfo-output value="tripinfo.xml"/>
    </output>

    <time>
        <begin value="0"/>
        <end value="-1"/>
    </time>

    <traci_server>
        <remote-port value="38011"/>
    </traci_server>

</configuration>
-->

<tripinfos xmlns:xsi="http://www.w3.org/2001/XMLSchema-instance" xsi:noNamespaceSchemaLocation="http://sumo.dlr.de/xsd/tripinfo_file.xsd">
    <tripinfo id="platoon_15.1" depart="28.00" departLane="w_t1_0" departPos="5.10" departSpeed="25.00" departDelay="1.00" arrival="84.00" arrivalLane="t2_s2_0" arrivalPos="189.60" arrivalSpeed="23.91" duration="56.00" routeLength="568.73" waitingTime="24.00" waitingCount="1" stopTime="0.00" timeLoss="39.18" rerouteNo="0" devices="tripinfo_platoon_15.1" vType="type1" speedFactor="1.80" vaporized=""/>
    <tripinfo id="platoon_15.2" depart="29.00" departLane="w_t1_0" departPos="5.10" departSpeed="25.00" departDelay="1.00" arrival="86.00" arrivalLane="t2_s2_0" arrivalPos="189.60" arrivalSpeed="23.90" duration="57.00" routeLength="568.73" waitingTime="23.00" waitingCount="1" stopTime="0.00" timeLoss="39.84" rerouteNo="0" devices="tripinfo_platoon_15.2" vType="type1" speedFactor="1.80" vaporized=""/>
    <tripinfo id="platoon_15.4" depart="31.00" departLane="w_t1_0" departPos="5.10" departSpeed="25.00" departDelay="1.00" arrival="88.00" arrivalLane="t2_s2_0" arrivalPos="189.60" arrivalSpeed="24.54" duration="57.00" routeLength="568.73" waitingTime="23.00" waitingCount="1" stopTime="0.00" timeLoss="40.57" rerouteNo="0" devices="tripinfo_platoon_15.4" vType="type1" speedFactor="1.80" vaporized=""/>
    <tripinfo id="platoon_16.0" depart="77.00" departLane="w_t1_0" departPos="5.10" departSpeed="25.00" departDelay="0.00" arrival="88.00" arrivalLane="t1_s1_0" arrivalPos="189.60" arrivalSpeed="24.67" duration="11.00" routeLength="374.10" waitingTime="0.00" waitingCount="0" stopTime="0.00" timeLoss="2.19" rerouteNo="0" devices="tripinfo_platoon_16.0" vType="type1" speedFactor="1.80" vaporized=""/>
    <tripinfo id="platoon_16.1" depart="78.00" departLane="w_t1_0" departPos="5.10" departSpeed="25.00" departDelay="0.00" arrival="89.00" arrivalLane="t1_s1_1" arrivalPos="189.60" arrivalSpeed="23.81" duration="11.00" routeLength="374.10" waitingTime="0.00" waitingCount="0" stopTime="0.00" timeLoss="2.17" rerouteNo="0" devices="tripinfo_platoon_16.1" vType="type1" speedFactor="1.80" vaporized=""/>
    <tripinfo id="platoon_14.1" depart="18.00" departLane="w_t1_0" departPos="5.10" departSpeed="25.00" departDelay="1.00" arrival="91.00" arrivalLane="t3_s3_0" arrivalPos="189.60" arrivalSpeed="24.75" duration="73.00" routeLength="768.73" waitingTime="28.00" waitingCount="1" stopTime="0.00" timeLoss="47.84" rerouteNo="0" devices="tripinfo_platoon_14.1" vType="type1" speedFactor="1.80" vaporized=""/>
    <tripinfo id="platoon_16.3" depart="80.00" departLane="w_t1_0" departPos="5.10" departSpeed="25.00" departDelay="0.00" arrival="91.00" arrivalLane="t1_s1_0" arrivalPos="189.60" arrivalSpeed="24.38" duration="11.00" routeLength="374.10" waitingTime="0.00" waitingCount="0" stopTime="0.00" timeLoss="2.31" rerouteNo="0" devices="tripinfo_platoon_16.3" vType="type1" speedFactor="1.80" vaporized=""/>
    <tripinfo id="platoon_16.4" depart="81.00" departLane="w_t1_0" departPos="5.10" departSpeed="25.00" departDelay="0.00" arrival="92.00" arrivalLane="t1_s1_1" arrivalPos="189.60" arrivalSpeed="24.82" duration="11.00" routeLength="374.10" waitingTime="0.00" waitingCount="0" stopTime="0.00" timeLoss="2.25" rerouteNo="0" devices="tripinfo_platoon_16.4" vType="type1" speedFactor="1.80" vaporized=""/>
    <tripinfo id="platoon_14.2" depart="19.00" departLane="w_t1_0" departPos="5.10" departSpeed="25.00" departDelay="1.00" arrival="93.00" arrivalLane="t3_s3_0" arrivalPos="189.60" arrivalSpeed="24.93" duration="74.00" routeLength="768.73" waitingTime="27.00" waitingCount="1" stopTime="0.00" timeLoss="48.53" rerouteNo="0" devices="tripinfo_platoon_14.2" vType="type1" speedFactor="1.80" vaporized=""/>
    <tripinfo id="platoon_14.4" depart="21.00" departLane="w_t1_0" departPos="5.10" departSpeed="25.00" departDelay="1.00" arrival="95.00" arrivalLane="t3_s3_0" arrivalPos="189.60" arrivalSpeed="24.72" duration="74.00" routeLength="768.73" waitingTime="27.00" waitingCount="1" stopTime="0.00" timeLoss="48.56" rerouteNo="0" devices="tripinfo_platoon_14.4" vType="type1" speedFactor="1.80" vaporized=""/>
    <tripinfo id="platoon_19.0" depart="60.00" departLane="n3_t3_1" departPos="5.10" departSpeed="25.00" departDelay="0.00" arrival="101.00" arrivalLane="t4_e_1" arrivalPos="196.00" arrivalSpeed="24.90" duration="41.00" routeLength="595.93" waitingTime="7.00" waitingCount="1" stopTime="0.00" timeLoss="16.54" rerouteNo="0" devices="tripinfo_platoon_19.0" vType="type1" speedFactor="1.80" vaporized=""/>
    <tripinfo id="platoon_19.1" depart="61.00" departLane="n3_t3_1" departPos="5.10" departSpeed="25.00" departDelay="0.00" arrival="101.00" arrivalLane="t4_e_0" arrivalPos="196.00" arrivalSpeed="24.14" duration="40.00" routeLength="595.93" waitingTime="2.00" waitingCount="1" stopTime="0.00" timeLoss="14.79" rerouteNo="0" devices="tripinfo_platoon_19.1" vType="type1" speedFactor="1.80" vaporized=""/>
    <tripinfo id="platoon_18.1" depart="27.00" departLane="n2_t2_1" departPos="5.10" departSpeed="25.00" departDelay="0.00" arrival="102.00" arrivalLane="t4_e_0" arrivalPos="196.00" arrivalSpeed="24.45" duration="75.00" routeLength="795.93" waitingTime="22.00" waitingCount="1" stopTime="0.00" timeLoss="42.36" rerouteNo="0" devices="tripinfo_platoon_18.1" vType="type1" speedFactor="1.80" vaporized=""/>
    <tripinfo id="platoon_18.0" depart="26.00" departLane="n2_t2_1" departPos="5.10" departSpeed="25.00" departDelay="0.00" arrival="103.00" arrivalLane="t4_e_1" arrivalPos="196.00" arrivalSpeed="24.72" duration="77.00" routeLength="795.93" waitingTime="27.00" waitingCount="1" stopTime="0.00" timeLoss="44.38" rerouteNo="0" devices="tripinfo_platoon_18.0" vType="type1" speedFactor="1.80" vaporized=""/>
    <tripinfo id="platoon_18.2" depart="28.00" departLane="n2_t2_1" departPos="5.10" departSpeed="25.00" departDelay="0.00" arrival="104.00" arrivalLane="t4_e_1" arrivalPos="196.00" arrivalSpeed="24.23" duration="76.00" routeLength="795.93" waitingTime="23.00" waitingCount="1" stopTime="0.00" timeLoss="43.31" rerouteNo="0" devices="tripinfo_platoon_18.2" vType="type1" speedFactor="1.80" vaporized=""/>
    <tripinfo id="platoon_18.3" depart="29.00" departLane="n2_t2_1" departPos="5.10" departSpeed="25.00" departDelay="0.00" arrival="104.00" arrivalLane="t4_e_0" arrivalPos="196.00" arrivalSpeed="24.02" duration="75.00" routeLength="795.93" waitingTime="18.00" waitingCount="1" stopTime="0.00" timeLoss="42.02" rerouteNo="0" devices="tripinfo_platoon_18.3" vType="type1" speedFactor="1.80" vaporized=""/>
    <tripinfo id="platoon_3.3" depart="15.00" departLane="w_t1_0" departPos="5.10" departSpeed="25.00" departDelay="1.00" arrival="105.00" arrivalLane="t4_e_0" arrivalPos="196.00" arrivalSpeed="23.76" duration="90.00" routeLength="980.50" waitingTime="29.00" waitingCount="1" stopTime="0.00" timeLoss="57.16" rerouteNo="0" devices="tripinfo_platoon_3.3" vType="type1" speedFactor="1.80" vaporized=""/>
    <tripinfo id="platoon_18.4" depart="30.00" departLane="n2_t2_1" departPos="5.10" departSpeed="25.00" departDelay="0.00" arrival="106.00" arrivalLane="t4_e_1" arrivalPos="196.00" arrivalSpeed="24.21" duration="76.00" routeLength="795.93" waitingTime="20.00" waitingCount="1" stopTime="0.00" timeLoss="42.86" rerouteNo="0" devices="tripinfo_platoon_18.4" vType="type1" speedFactor="1.80" vaporized=""/>
    <tripinfo id="platoon_3.4" depart="16.00" departLane="w_t1_0" departPos="5.10" departSpeed="25.00" departDelay="1.00" arrival="107.00" arrivalLane="t4_e_1" arrivalPos="196.00" arrivalSpeed="24.33" duration="91.00" routeLength="980.50" waitingTime="29.00" waitingCount="2" stopTime="0.00" timeLoss="58.08" rerouteNo="0" devices="tripinfo_platoon_3.4" vType="type1" speedFactor="1.80" vaporized=""/>
    <tripinfo id="platoon_5.0" depart="22.00" departLane="w_t1_0" departPos="5.10" departSpeed="25.00" departDelay="1.00" arrival="107.00" arrivalLane="t4_e_0" arrivalPos="196.00" arrivalSpeed="24.97" duration="85.00" routeLength="980.50" waitingTime="26.00" waitingCount="1" stopTime="0.00" timeLoss="51.49" rerouteNo="0" devices="tripinfo_platoon_5.0" vType="type1" speedFactor="1.80" vaporized=""/>
    <tripinfo id="platoon_5.2" depart="24.00" departLane="w_t1_0" departPos="5.10" departSpeed="25.00" departDelay="1.00" arrival="108.00" arrivalLane="t4_e_0" arrivalPos="196.00" arrivalSpeed="24.73" duration="84.00" routeLength="980.50" waitingTime="25.00" waitingCount="1" stopTime="0.00" timeLoss="50.96" rerouteNo="0" devices="tripinfo_platoon_5.2" vType="type1" speedFactor="1.80" vaporized=""/>
    <tripinfo id="platoon_17.0" depart="12.00" departLane="n1_t1_1" departPos="5.10" departSpeed="25.00" departDelay="0.50" arrival="109.00" arrivalLane="t4_e_1" arrivalPos="196.00" arrivalSpeed="23.85" duration="97.00" routeLength="995.93" waitingTime="27.00" waitingCount="1" stopTime="0.00" timeLoss="56.28" rerouteNo="0" devices="tripinfo_platoon_17.0" vType="type1" speedFactor="1.80" vaporized=""/>
    <tripinfo id="platoon_5.4" depart="26.00" departLane="w_t1_0" departPos="5.10" departSpeed="25.00" departDelay="1.00" arrival="109.00" arrivalLane="t4_e_0" arrivalPos="196.00" arrivalSpeed="24.21" duration="83.00" routeLength="980.50" waitingTime="24.00" waitingCount="1" stopTime="0.00" timeLoss="50.37" rerouteNo="0" devices="tripinfo_platoon_5.4" vType="type1" speedFactor="1.80" vaporized=""/>
    <tripinfo id="platoon_17.1" depart="13.00" departLane="n1_t1_1" departPos="5.10" departSpeed="25.00" departDelay="0.50" arrival="110.00" arrivalLane="t4_e_1" arrivalPos="196.00" arrivalSpeed="23.70" duration="97.00" routeLength="995.93" waitingTime="26.00" waitingCount="1" stopTime="0.00" timeLoss="56.19" rerouteNo="0" devices="tripinfo_platoon_17.1" vType="type1" speedFactor="1.80" vaporized=""/>
    <tripinfo id="platoon_1.0" depart="1.00" departLane="w_t1_0" departPos="5.10" departSpeed="25.00" departDelay="0.00" arrival="111.00" arrivalLane="t4_e_0" arrivalPos="196.00" arrivalSpeed="24.84" duration="110.00" routeLength="994.90" waitingTime="45.00" waitingCount="2" stopTime="0.00" timeLoss="69.51" rerouteNo="0" devices="tripinfo_platoon_1.0" vType="type1" speedFactor="1.80" vaporized=""/>
    <tripinfo id="platoon_17.2" depart="14.00" departLane="n1_t1_1" departPos="5.10" departSpeed="25.00" departDelay="0.50" arrival="111.00" arrivalLane="t4_e_1" arrivalPos="196.00" arrivalSpeed="24.16" duration="97.00" routeLength="995.93" waitingTime="24.00" waitingCount="1" stopTime="0.00" timeLoss="56.60" rerouteNo="0" devices="tripinfo_platoon_17.2" vType="type1" speedFactor="1.80" vaporized=""/>
    <tripinfo id="platoon_1.1" depart="2.00" departLane="w_t1_0" departPos="5.10" departSpeed="25.00" departDelay="0.00" arrival="112.00" arrivalLane="t4_e_0" arrivalPos="196.00" arrivalSpeed="24.67" duration="110.00" routeLength="994.90" waitingTime="42.00" waitingCount="2" stopTime="0.00" timeLoss="69.92" rerouteNo="0" devices="tripinfo_platoon_1.1" vType="type1" speedFactor="1.80" vaporized=""/>
    <tripinfo id="platoon_17.3" depart="15.00" departLane="n1_t1_1" departPos="5.10" departSpeed="25.00" departDelay="0.50" arrival="113.00" arrivalLane="t4_e_1" arrivalPos="196.00" arrivalSpeed="23.79" duration="98.00" routeLength="995.93" waitingTime="24.00" waitingCount="1" stopTime="0.00" timeLoss="57.17" rerouteNo="0" devices="tripinfo_platoon_17.3" vType="type1" speedFactor="1.80" vaporized=""/>
    <tripinfo id="platoon_1.2" depart="3.00" departLane="w_t1_0" departPos="5.10" departSpeed="25.00" departDelay="0.00" arrival="114.00" arrivalLane="t4_e_0" arrivalPos="196.00" arrivalSpeed="24.41" duration="111.00" routeLength="994.90" waitingTime="40.00" waitingCount="2" stopTime="0.00" timeLoss="70.36" rerouteNo="0" devices="tripinfo_platoon_1.2" vType="type1" speedFactor="1.80" vaporized=""/>
    <tripinfo id="platoon_17.4" depart="16.00" departLane="n1_t1_1" departPos="5.10" departSpeed="25.00" departDelay="0.50" arrival="114.00" arrivalLane="t4_e_1" arrivalPos="196.00" arrivalSpeed="24.37" duration="98.00" routeLength="995.93" waitingTime="23.00" waitingCount="1" stopTime="0.00" timeLoss="58.04" rerouteNo="0" devices="tripinfo_platoon_17.4" vType="type1" speedFactor="1.80" vaporized=""/>
    <tripinfo id="platoon_1.3" depart="4.00" departLane="w_t1_0" departPos="5.10" departSpeed="25.00" departDelay="0.00" arrival="115.00" arrivalLane="t4_e_0" arrivalPos="196.00" arrivalSpeed="24.53" duration="111.00" routeLength="994.90" waitingTime="39.00" waitingCount="2" stopTime="0.00" timeLoss="70.75" rerouteNo="0" devices="tripinfo_platoon_1.3" vType="type1" speedFactor="1.80" vaporized=""/>
    <tripinfo id="platoon_2.0" depart="2.00" departLane="w_t1_1" departPos="5.10" departSpeed="25.00" departDelay="0.50" arrival="116.00" arrivalLane="t4_e_1" arrivalPos="196.00" arrivalSpeed="23.87" duration="114.00" routeLength="994.90" waitingTime="36.00" waitingCount="2" stopTime="0.00" timeLoss="73.65" rerouteNo="0" devices="tripinfo_platoon_2.0" vType="type2" speedFactor="1.80" vaporized=""/>
    <tripinfo id="platoon_2.1" depart="3.00" departLane="w_t1_1" departPos="5.10" departSpeed="25.00" departDelay="0.50" arrival="117.00" arrivalLane="t4_e_1" arrivalPos="196.00" arrivalSpeed="23.82" duration="114.00" routeLength="994.90" waitingTime="34.00" waitingCount="2" stopTime="0.00" timeLoss="74.11" rerouteNo="0" devices="tripinfo_platoon_2.1" vType="type2" speedFactor="1.80" vaporized=""/>
    <tripinfo id="platoon_1.4" depart="5.00" departLane="w_t1_0" departPos="5.10" departSpeed="25.00" departDelay="0.00" arrival="117.00" arrivalLane="t4_e_0" arrivalPos="196.00" arrivalSpeed="23.85" duration="112.00" routeLength="994.90" waitingTime="38.00" waitingCount="2" stopTime="0.00" timeLoss="71.29" rerouteNo="0" devices="tripinfo_platoon_1.4" vType="type1" speedFactor="1.80" vaporized=""/>
    <tripinfo id="platoon_2.2" depart="4.00" departLane="w_t1_1" departPos="5.10" departSpeed="25.00" departDelay="0.50" arrival="119.00" arrivalLane="t4_e_1" arrivalPos="196.00" arrivalSpeed="24.80" duration="115.00" routeLength="994.90" waitingTime="35.00" waitingCount="2" stopTime="0.00" timeLoss="74.40" rerouteNo="0" devices="tripinfo_platoon_2.2" vType="type2" speedFactor="1.80" vaporized=""/>
    <tripinfo id="platoon_13.0" depart="7.00" departLane="w_t1_0" departPos="5.10" departSpeed="25.00" departDelay="0.50" arrival="119.00" arrivalLane="t4_s4_0" arrivalPos="189.60" arrivalSpeed="24.69" duration="112.00" routeLength="983.13" waitingTime="37.00" waitingCount="2" stopTime="0.00" timeLoss="71.86" rerouteNo="0" devices="tripinfo_platoon_13.0" vType="type1" speedFactor="1.80" vaporized=""/>
    <tripinfo id="platoon_2.3" depart="5.00" departLane="w_t1_1" departPos="5.10" departSpeed="25.00" departDelay="0.50" arrival="120.00" arrivalLane="t4_e_1" arrivalPos="196.00" arrivalSpeed="24.78" duration="115.00" routeLength="994.90" waitingTime="33.00" waitingCount="2" stopTime="0.00" timeLoss="74.77" rerouteNo="0" devices="tripinfo_platoon_2.3" vType="type2" speedFactor="1.80" vaporized=""/>
    <tripinfo id="platoon_14.0" depart="17.00" departLane="w_t1_0" departPos="5.10" departSpeed="25.00" departDelay="1.00" arrival="120.00" arrivalLane="t3_s3_0" arrivalPos="189.60" arrivalSpeed="24.96" duration="103.00" routeLength="783.13" waitingTime="31.00" waitingCount="2" stopTime="0.00" timeLoss="71.65" rerouteNo="0" devices="tripinfo_platoon_14.0" vType="type1" speedFactor="1.80" vaporized=""/>
    <tripinfo id="platoon_13.2" depart="9.00" departLane="w_t1_0" departPos="5.10" departSpeed="25.00" departDelay="0.50" arrival="121.00" arrivalLane="t4_s4_0" arrivalPos="189.60" arrivalSpeed="24.49" duration="112.00" routeLength="983.13" waitingTime="32.00" waitingCount="2" stopTime="0.00" timeLoss="72.45" rerouteNo="0" devices="tripinfo_platoon_13.2" vType="type1" speedFactor="1.80" vaporized=""/>
    <tripinfo id="platoon_2.4" depart="6.00" departLane="w_t1_1" departPos="5.10" departSpeed="25.00" departDelay="0.50" arrival="122.00" arrivalLane="t4_e_1" arrivalPos="196.00" arrivalSpeed="24.25" duration="116.00" routeLength="994.90" waitingTime="31.00" waitingCount="2" stopTime="0.00" timeLoss="75.24" rerouteNo="0" devices="tripinfo_platoon_2.4" vType="type2" speedFactor="1.80" vaporized=""/>
    <tripinfo id="platoon_13.1" depart="8.00" departLane="w_t1_0" departPos="5.10" departSpeed="25.00" departDelay="0.50" arrival="123.00" arrivalLane="t4_s4_0" arrivalPos="189.60" arrivalSpeed="24.09" duration="115.00" routeLength="983.13" waitingTime="36.00" waitingCount="3" stopTime="0.00" timeLoss="74.53" rerouteNo="0" devices="tripinfo_platoon_13.1" vType="type1" speedFactor="1.80" vaporized=""/>
    <tripinfo id="platoon_4.0" depart="12.00" departLane="w_t1_1" departPos="5.10" departSpeed="25.00" departDelay="0.50" arrival="123.00" arrivalLane="t4_e_1" arrivalPos="196.00" arrivalSpeed="24.54" duration="111.00" routeLength="994.90" waitingTime="29.00" waitingCount="2" stopTime="0.00" timeLoss="70.57" rerouteNo="0" devices="tripinfo_platoon_4.0" vType="type2" speedFactor="1.80" vaporized=""/>
    <tripinfo id="platoon_14.3" depart="20.00" departLane="w_t1_0" departPos="5.10" departSpeed="25.00" departDelay="1.00" arrival="123.00" arrivalLane="t3_s3_0" arrivalPos="189.60" arrivalSpeed="24.06" duration="103.00" routeLength="783.13" waitingTime="31.00" waitingCount="2" stopTime="0.00" timeLoss="70.30" rerouteNo="0" devices="tripinfo_platoon_14.3" vType="type1" speedFactor="1.80" vaporized=""/>
    <tripinfo id="platoon_4.1" depart="13.00" departLane="w_t1_1" departPos="5.10" departSpeed="25.00" departDelay="0.50" arrival="124.00" arrivalLane="t4_e_1" arrivalPos="196.00" arrivalSpeed="24.51" duration="111.00" routeLength="994.90" waitingTime="29.00" waitingCount="2" stopTime="0.00" timeLoss="71.00" rerouteNo="0" devices="tripinfo_platoon_4.1" vType="type2" speedFactor="1.80" vaporized=""/>
    <tripinfo id="platoon_13.3" depart="10.00" departLane="w_t1_0" departPos="5.10" departSpeed="25.00" departDelay="0.50" arrival="125.00" arrivalLane="t4_s4_0" arrivalPos="189.60" arrivalSpeed="24.28" duration="115.00" routeLength="983.13" waitingTime="35.00" waitingCount="3" stopTime="0.00" timeLoss="74.32" rerouteNo="0" devices="tripinfo_platoon_13.3" vType="type1" speedFactor="1.80" vaporized=""/>
    <tripinfo id="platoon_4.2" depart="14.00" departLane="w_t1_1" departPos="5.10" departSpeed="25.00" departDelay="0.50" arrival="126.00" arrivalLane="t4_e_1" arrivalPos="196.00" arrivalSpeed="24.40" duration="112.00" routeLength="994.90" waitingTime="29.00" waitingCount="2" stopTime="0.00" timeLoss="71.45" rerouteNo="0" devices="tripinfo_platoon_4.2" vType="type2" speedFactor="1.80" vaporized=""/>
    <tripinfo id="platoon_13.4" depart="11.00" departLane="w_t1_0" departPos="5.10" departSpeed="25.00" departDelay="0.50" arrival="127.00" arrivalLane="t4_s4_0" arrivalPos="189.60" arrivalSpeed="24.44" duration="116.00" routeLength="983.13" waitingTime="34.00" waitingCount="2" stopTime="0.00" timeLoss="75.25" rerouteNo="0" devices="tripinfo_platoon_13.4" vType="type1" speedFactor="1.80" vaporized=""/>
    <tripinfo id="platoon_4.3" depart="15.00" departLane="w_t1_1" departPos="5.10" departSpeed="25.00" departDelay="0.50" arrival="127.00" arrivalLane="t4_e_1" arrivalPos="196.00" arrivalSpeed="24.56" duration="112.00" routeLength="994.90" waitingTime="27.00" waitingCount="1" stopTime="0.00" timeLoss="71.98" rerouteNo="0" devices="tripinfo_platoon_4.3" vType="type2" speedFactor="1.80" vaporized=""/>
    <tripinfo id="platoon_3.0" depart="12.00" departLane="w_t1_0" departPos="5.10" departSpeed="25.00" departDelay="1.00" arrival="128.00" arrivalLane="t4_e_0" arrivalPos="196.00" arrivalSpeed="24.40" duration="116.00" routeLength="994.90" waitingTime="31.00" waitingCount="2" stopTime="0.00" timeLoss="75.55" rerouteNo="0" devices="tripinfo_platoon_3.0" vType="type1" speedFactor="1.80" vaporized=""/>
    <tripinfo id="platoon_3.1" depart="13.00" departLane="w_t1_0" departPos="5.10" departSpeed="25.00" departDelay="1.00" arrival="129.00" arrivalLane="t4_e_0" arrivalPos="196.00" arrivalSpeed="24.72" duration="116.00" routeLength="994.90" waitingTime="33.00" waitingCount="3" stopTime="0.00" timeLoss="75.90" rerouteNo="0" devices="tripinfo_platoon_3.1" vType="type1" speedFactor="1.80" vaporized=""/>
    <tripinfo id="platoon_4.4" depart="16.00" departLane="w_t1_1" departPos="5.10" departSpeed="25.00" departDelay="0.50" arrival="129.00" arrivalLane="t4_e_1" arrivalPos="196.00" arrivalSpeed="24.59" duration="113.00" routeLength="994.90" waitingTime="27.00" waitingCount="1" stopTime="0.00" timeLoss="72.41" rerouteNo="0" devices="tripinfo_platoon_4.4" vType="type2" speedFactor="1.80" vaporized=""/>
    <tripinfo id="platoon_6.0" depart="22.00" departLane="w_t1_1" departPos="5.10" departSpeed="25.00" departDelay="0.50" arrival="130.00" arrivalLane="t4_e_1" arrivalPos="196.00" arrivalSpeed="24.40" duration="108.00" routeLength="994.90" waitingTime="26.00" waitingCount="2" stopTime="0.00" timeLoss="67.89" rerouteNo="0" devices="tripinfo_platoon_6.0" vType="type2" speedFactor="1.80" vaporized=""/>
    <tripinfo id="platoon_3.2" depart="14.00" departLane="w_t1_0" departPos="5.10" departSpeed="25.00" departDelay="1.00" arrival="131.00" arrivalLane="t4_e_0" arrivalPos="196.00" arrivalSpeed="24.07" duration="117.00" routeLength="994.90" waitingTime="32.00" waitingCount="2" stopTime="0.00" timeLoss="76.33" rerouteNo="0" devices="tripinfo_platoon_3.2" vType="type1" speedFactor="1.80" vaporized=""/>
    <tripinfo id="platoon_6.1" depart="23.00" departLane="w_t1_1" departPos="5.10" departSpeed="25.00" departDelay="0.50" arrival="132.00" arrivalLane="t4_e_1" arrivalPos="196.00" arrivalSpeed="24.45" duration="109.00" routeLength="994.90" waitingTime="26.00" waitingCount="1" stopTime="0.00" timeLoss="68.33" rerouteNo="0" devices="tripinfo_platoon_6.1" vType="type2" speedFactor="1.80" vaporized=""/>
    <tripinfo id="platoon_6.3" depart="25.00" departLane="w_t1_1" departPos="5.10" departSpeed="25.00" departDelay="0.50" arrival="132.00" arrivalLane="t4_e_0" arrivalPos="196.00" arrivalSpeed="23.83" duration="107.00" routeLength="994.90" waitingTime="24.00" waitingCount="1" stopTime="0.00" timeLoss="67.00" rerouteNo="0" devices="tripinfo_platoon_6.3" vType="type2" speedFactor="1.80" vaporized=""/>
    <tripinfo id="platoon_6.2" depart="24.00" departLane="w_t1_1" departPos="5.10" departSpeed="25.00" departDelay="0.50" arrival="133.00" arrivalLane="t4_e_1" arrivalPos="196.00" arrivalSpeed="23.89" duration="109.00" routeLength="994.90" waitingTime="25.00" waitingCount="1" stopTime="0.00" timeLoss="68.80" rerouteNo="0" devices="tripinfo_platoon_6.2" vType="type2" speedFactor="1.80" vaporized=""/>
    <tripinfo id="platoon_6.4" depart="26.00" departLane="w_t1_1" departPos="5.10" departSpeed="25.00" departDelay="0.50" arrival="135.00" arrivalLane="t4_e_1" arrivalPos="196.00" arrivalSpeed="24.68" duration="109.00" routeLength="994.90" waitingTime="24.00" waitingCount="1" stopTime="0.00" timeLoss="68.37" rerouteNo="0" devices="tripinfo_platoon_6.4" vType="type2" speedFactor="1.80" vaporized=""/>
    <tripinfo id="platoon_5.1" depart="23.00" departLane="w_t1_0" departPos="5.10" departSpeed="25.00" departDelay="1.00" arrival="136.00" arrivalLane="t4_e_1" arrivalPos="196.00" arrivalSpeed="24.57" duration="113.00" routeLength="994.90" waitingTime="23.00" waitingCount="1" stopTime="0.00" timeLoss="72.82" rerouteNo="0" devices="tripinfo_platoon_5.1" vType="type1" speedFactor="1.80" vaporized=""/>
    <tripinfo id="platoon_20.0" depart="77.00" departLane="n4_t4_1" departPos="5.10" departSpeed="25.00" departDelay="0.00" arrival="146.00" arrivalLane="t4_e_1" arrivalPos="196.00" arrivalSpeed="24.77" duration="69.00" routeLength="395.93" waitingTime="44.00" waitingCount="1" stopTime="0.00" timeLoss="52.50" rerouteNo="0" devices="tripinfo_platoon_20.0" vType="type1" speedFactor="1.80" vaporized=""/>
    <tripinfo id="platoon_20.1" depart="78.00" departLane="n4_t4_1" departPos="5.10" departSpeed="25.00" departDelay="0.00" arrival="148.00" arrivalLane="t4_e_1" arrivalPos="196.00" arrivalSpeed="24.70" duration="70.00" routeLength="395.93" waitingTime="43.00" waitingCount="1" stopTime="0.00" timeLoss="53.31" rerouteNo="0" devices="tripinfo_platoon_20.1" vType="type1" speedFactor="1.80" vaporized=""/>
    <tripinfo id="platoon_20.2" depart="79.00" departLane="n4_t4_1" departPos="5.10" departSpeed="25.00" departDelay="0.00" arrival="149.00" arrivalLane="t4_e_1" arrivalPos="196.00" arrivalSpeed="24.51" duration="70.00" routeLength="395.93" waitingTime="42.00" waitingCount="1" stopTime="0.00" timeLoss="53.68" rerouteNo="0" devices="tripinfo_platoon_20.2" vType="type1" speedFactor="1.80" vaporized=""/>
    <tripinfo id="platoon_20.3" depart="80.00" departLane="n4_t4_1" departPos="5.10" departSpeed="25.00" departDelay="0.00" arrival="151.00" arrivalLane="t4_e_1" arrivalPos="196.00" arrivalSpeed="24.67" duration="71.00" routeLength="395.93" waitingTime="42.00" waitingCount="1" stopTime="0.00" timeLoss="54.03" rerouteNo="0" devices="tripinfo_platoon_20.3" vType="type1" speedFactor="1.80" vaporized=""/>
    <tripinfo id="platoon_20.4" depart="81.00" departLane="n4_t4_1" departPos="5.10" departSpeed="25.00" departDelay="0.00" arrival="153.00" arrivalLane="t4_e_1" arrivalPos="196.00" arrivalSpeed="24.62" duration="72.00" routeLength="395.93" waitingTime="42.00" waitingCount="1" stopTime="0.00" timeLoss="55.48" rerouteNo="0" devices="tripinfo_platoon_20.4" vType="type1" speedFactor="1.80" vaporized=""/>
    <tripinfo id="platoon_16.2" depart="79.00" departLane="w_t1_0" departPos="5.10" departSpeed="25.00" departDelay="0.00" arrival="163.00" arrivalLane="t1_s1_0" arrivalPos="189.60" arrivalSpeed="24.68" duration="84.00" routeLength="383.13" waitingTime="48.00" waitingCount="1" stopTime="0.00" timeLoss="67.96" rerouteNo="0" devices="tripinfo_platoon_16.2" vType="type1" speedFactor="1.80" vaporized=""/>
    <tripinfo id="platoon_15.0" depart="27.00" departLane="w_t1_0" departPos="5.10" departSpeed="25.00" departDelay="1.00" arrival="164.00" arrivalLane="t2_s2_0" arrivalPos="189.60" arrivalSpeed="23.90" duration="137.00" routeLength="583.13" waitingTime="69.00" waitingCount="3" stopTime="0.00" timeLoss="112.95" rerouteNo="0" devices="tripinfo_platoon_15.0" vType="type1" speedFactor="1.80" vaporized=""/>
    <tripinfo id="platoon_15.3" depart="30.00" departLane="w_t1_0" departPos="5.10" departSpeed="25.00" departDelay="1.00" arrival="169.00" arrivalLane="t2_s2_0" arrivalPos="189.60" arrivalSpeed="24.99" duration="139.00" routeLength="583.13" waitingTime="71.00" waitingCount="4" stopTime="0.00" timeLoss="115.12" rerouteNo="0" devices="tripinfo_platoon_15.3" vType="type1" speedFactor="1.80" vaporized=""/>
    <tripinfo id="platoon_19.2" depart="62.00" departLane="n3_t3_1" departPos="5.10" departSpeed="25.00" departDelay="0.00" arrival="191.00" arrivalLane="t4_e_1" arrivalPos="196.00" arrivalSpeed="24.81" duration="129.00" routeLength="595.93" waitingTime="86.00" waitingCount="2" stopTime="0.00" timeLoss="104.13" rerouteNo="0" devices="tripinfo_platoon_19.2" vType="type1" speedFactor="1.80" vaporized=""/>
    <tripinfo id="platoon_19.3" depart="63.00" departLane="n3_t3_1" departPos="5.10" departSpeed="25.00" departDelay="0.00" arrival="191.00" arrivalLane="t4_e_0" arrivalPos="196.00" arrivalSpeed="24.89" duration="128.00" routeLength="595.93" waitingTime="82.00" waitingCount="2" stopTime="0.00" timeLoss="103.36" rerouteNo="0" devices="tripinfo_platoon_19.3" vType="type1" speedFactor="1.80" vaporized=""/>
    <tripinfo id="platoon_5.3" depart="25.00" departLane="w_t1_0" departPos="5.10" departSpeed="25.00" departDelay="1.00" arrival="192.00" arrivalLane="t4_e_0" arrivalPos="196.00" arrivalSpeed="24.64" duration="167.00" routeLength="994.90" waitingTime="77.00" waitingCount="4" stopTime="0.00" timeLoss="127.18" rerouteNo="0" devices="tripinfo_platoon_5.3" vType="type1" speedFactor="1.80" vaporized=""/>
    <tripinfo id="platoon_19.4" depart="64.00" departLane="n3_t3_1" departPos="5.10" departSpeed="25.00" departDelay="0.00" arrival="192.00" arrivalLane="t4_e_1" arrivalPos="196.00" arrivalSpeed="24.92" duration="128.00" routeLength="595.93" waitingTime="82.00" waitingCount="2" stopTime="0.00" timeLoss="103.66" rerouteNo="0" devices="tripinfo_platoon_19.4" vType="type1" speedFactor="1.80" vaporized=""/>
    <tripinfo id="platoon_8.0" depart="56.00" departLane="w_t1_1" departPos="5.10" departSpeed="25.00" departDelay="0.50" arrival="194.00" arrivalLane="t4_e_1" arrivalPos="196.00" arrivalSpeed="24.46" duration="138.00" routeLength="994.90" waitingTime="50.00" waitingCount="2" stopTime="0.00" timeLoss="97.52" rerouteNo="0" devices="tripinfo_platoon_8.0" vType="type2" speedFactor="1.80" vaporized=""/>
    <tripinfo id="platoon_8.1" depart="57.00" departLane="w_t1_1" departPos="5.10" departSpeed="25.00" departDelay="0.50" arrival="195.00" arrivalLane="t4_e_1" arrivalPos="196.00" arrivalSpeed="23.83" duration="138.00" routeLength="994.90" waitingTime="49.00" waitingCount="2" stopTime="0.00" timeLoss="98.04" rerouteNo="0" devices="tripinfo_platoon_8.1" vType="type2" speedFactor="1.80" vaporized=""/>